Program Version,EnergyPlus, Version 24.2.0-94a887817b, YMD=2025.01.04 16:55
1,5,Environment Title[],Latitude[deg],Longitude[deg],Time Zone[],Elevation[m]
2,8,Day of Simulation[],Month[],Day of Month[],DST Indicator[1=yes 0=no],Hour[],StartMinute[],EndMinute[],DayType
3,5,Cumulative Day of Simulation[],Month[],Day of Month[],DST Indicator[1=yes 0=no],DayType  ! When Daily Meters Requested
4,2,Cumulative Days of Simulation[],Month[]  ! When Monthly Meters Requested
5,1,Cumulative Days of Simulation[] ! When Run Period Meters Requested
6,1,Calendar Year of Simulation[] ! When Annual Meters Requested
198,1,InteriorLights:Electricity [J] !Hourly
1030,1,InteriorEquipment:Electricity [J] !Hourly
End of Data Dictionary
1,RUNPERIOD 1,  37.48, 126.55,   9.00,  70.00
2,1, 1, 1, 0, 1, 0.00,60.00,Holiday
198,36464788.34797145
1030,746122165.6661774
2,1, 1, 1, 0, 2, 0.00,60.00,Holiday
198,36464788.34797145
1030,746122165.6661774
2,1, 1, 1, 0, 3, 0.00,60.00,Holiday
198,36464788.34797145
1030,746122165.6661774
2,1, 1, 1, 0, 4, 0.00,60.00,Holiday
198,36464788.34797145
1030,746122165.6661774
2,1, 1, 1, 0, 5, 0.00,60.00,Holiday
198,36464788.34797145
1030,746122165.6661774
2,1, 1, 1, 0, 6, 0.00,60.00,Holiday
198,36464788.34797145
1030,746122165.6661774
2,1, 1, 1, 0, 7, 0.00,60.00,Holiday
198,48092070.92212643
1030,824394452.0555364
2,1, 1, 1, 0, 8, 0.00,60.00,Holiday
198,51361416.141758814
1030,824394452.0555364
2,1, 1, 1, 0, 9, 0.00,60.00,Holiday
198,46148708.498751074
1030,824394452.0555364
2,1, 1, 1, 0,10, 0.00,60.00,Holiday
198,44734127.06664909
1030,824394452.0555364
2,1, 1, 1, 0,11, 0.00,60.00,Holiday
198,44734127.06664909
1030,824394452.0555364
2,1, 1, 1, 0,12, 0.00,60.00,Holiday
198,44734127.06664909
1030,824394452.0555364
2,1, 1, 1, 0,13, 0.00,60.00,Holiday
198,44734127.06664909
1030,824394452.0555364
2,1, 1, 1, 0,14, 0.00,60.00,Holiday
198,44734127.06664909
1030,824394452.0555364
2,1, 1, 1, 0,15, 0.00,60.00,Holiday
198,44734127.06664909
1030,824394452.0555364
2,1, 1, 1, 0,16, 0.00,60.00,Holiday
198,44738782.94873357
1030,824394452.0555364
2,1, 1, 1, 0,17, 0.00,60.00,Holiday
198,46531676.56363175
1030,824394452.0555364
2,1, 1, 1, 0,18, 0.00,60.00,Holiday
198,51670835.54924527
1030,824394452.0555364
2,1, 1, 1, 0,19, 0.00,60.00,Holiday
198,41707937.25831755
1030,746122165.6661774
2,1, 1, 1, 0,20, 0.00,60.00,Holiday
198,36464788.34797145
1030,746122165.6661774
2,1, 1, 1, 0,21, 0.00,60.00,Holiday
198,36464788.34797145
1030,746122165.6661774
2,1, 1, 1, 0,22, 0.00,60.00,Holiday
198,36464788.34797145
1030,746122165.6661774
2,1, 1, 1, 0,23, 0.00,60.00,Holiday
198,36464788.34797145
1030,746122165.6661774
2,1, 1, 1, 0,24, 0.00,60.00,Holiday
198,36464788.34797145
1030,746122165.6661774
2,2, 1, 2, 0, 1, 0.00,60.00,Monday
198,36464788.34797145
1030,836730825.2177296
2,2, 1, 2, 0, 2, 0.00,60.00,Monday
198,36464788.34797145
1030,836730825.2177296
2,2, 1, 2, 0, 3, 0.00,60.00,Monday
198,36464788.34797145
1030,836730825.2177296
2,2, 1, 2, 0, 4, 0.00,60.00,Monday
198,36464788.34797145
1030,836730825.2177296
2,2, 1, 2, 0, 5, 0.00,60.00,Monday
198,36464788.34797145
1030,836730825.2177296
2,2, 1, 2, 0, 6, 0.00,60.00,Monday
198,37975250.63110626
1030,836730825.2177296
2,2, 1, 2, 0, 7, 0.00,60.00,Monday
198,87445560.3280437
1030,941093873.7368753
2,2, 1, 2, 0, 8, 0.00,60.00,Monday
198,311185087.2560034
1030,941093873.7368753
2,2, 1, 2, 0, 9, 0.00,60.00,Monday
198,900620811.0463505
1030,1524590982.1435688
2,2, 1, 2, 0,10, 0.00,60.00,Monday
198,827925753.7968572
1030,1524590982.1435688
2,2, 1, 2, 0,11, 0.00,60.00,Monday
198,809729116.1627221
1030,1524590982.1435688
2,2, 1, 2, 0,12, 0.00,60.00,Monday
198,805262317.6910998
1030,1524590982.1435688
2,2, 1, 2, 0,13, 0.00,60.00,Monday
198,805214287.1996835
1030,1407891560.4622304
2,2, 1, 2, 0,14, 0.00,60.00,Monday
198,805214287.1996835
1030,1524590982.1435688
2,2, 1, 2, 0,15, 0.00,60.00,Monday
198,805214287.1996835
1030,1524590982.1435688
2,2, 1, 2, 0,16, 0.00,60.00,Monday
198,807374938.943336
1030,1524590982.1435688
2,2, 1, 2, 0,17, 0.00,60.00,Monday
198,861874240.6323373
1030,1524590982.1435688
2,2, 1, 2, 0,18, 0.00,60.00,Monday
198,517812271.7260867
1030,1057793295.4182141
2,2, 1, 2, 0,19, 0.00,60.00,Monday
198,312092162.51627046
1030,941093873.7368753
2,2, 1, 2, 0,20, 0.00,60.00,Monday
198,312092162.51627046
1030,941093873.7368753
2,2, 1, 2, 0,21, 0.00,60.00,Monday
198,208061441.6775136
1030,941093873.7368753
2,2, 1, 2, 0,22, 0.00,60.00,Monday
198,208061441.6775136
1030,941093873.7368753
2,2, 1, 2, 0,23, 0.00,60.00,Monday
198,104030720.8387568
1030,941093873.7368753
2,2, 1, 2, 0,24, 0.00,60.00,Monday
198,52015360.4193784
1030,941093873.7368753
2,3, 1, 3, 0, 1, 0.00,60.00,Tuesday
198,41707937.25831755
1030,836730825.2177296
2,3, 1, 3, 0, 2, 0.00,60.00,Tuesday
198,36464788.34797145
1030,836730825.2177296
2,3, 1, 3, 0, 3, 0.00,60.00,Tuesday
198,36464788.34797145
1030,836730825.2177296
2,3, 1, 3, 0, 4, 0.00,60.00,Tuesday
198,36464788.34797145
1030,836730825.2177296
2,3, 1, 3, 0, 5, 0.00,60.00,Tuesday
198,36464788.34797145
1030,836730825.2177296
2,3, 1, 3, 0, 6, 0.00,60.00,Tuesday
198,37975250.63110626
1030,836730825.2177296
2,3, 1, 3, 0, 7, 0.00,60.00,Tuesday
198,87445560.3280437
1030,941093873.7368753
2,3, 1, 3, 0, 8, 0.00,60.00,Tuesday
198,308961093.2525874
1030,941093873.7368753
2,3, 1, 3, 0, 9, 0.00,60.00,Tuesday
198,840508631.1989713
1030,1524590982.1435688
2,3, 1, 3, 0,10, 0.00,60.00,Tuesday
198,805214287.1996835
1030,1524590982.1435688
2,3, 1, 3, 0,11, 0.00,60.00,Tuesday
198,805214287.1996835
1030,1524590982.1435688
2,3, 1, 3, 0,12, 0.00,60.00,Tuesday
198,805214287.1996835
1030,1524590982.1435688
2,3, 1, 3, 0,13, 0.00,60.00,Tuesday
198,805214287.1996835
1030,1407891560.4622304
2,3, 1, 3, 0,14, 0.00,60.00,Tuesday
198,805214287.1996835
1030,1524590982.1435688
2,3, 1, 3, 0,15, 0.00,60.00,Tuesday
198,805214287.1996835
1030,1524590982.1435688
2,3, 1, 3, 0,16, 0.00,60.00,Tuesday
198,805288271.8935332
1030,1524590982.1435688
2,3, 1, 3, 0,17, 0.00,60.00,Tuesday
198,829800814.363956
1030,1524590982.1435688
2,3, 1, 3, 0,18, 0.00,60.00,Tuesday
198,516206968.13619137
1030,1057793295.4182141
2,3, 1, 3, 0,19, 0.00,60.00,Tuesday
198,312092162.51627046
1030,941093873.7368753
2,3, 1, 3, 0,20, 0.00,60.00,Tuesday
198,312092162.51627046
1030,941093873.7368753
2,3, 1, 3, 0,21, 0.00,60.00,Tuesday
198,208061441.6775136
1030,941093873.7368753
2,3, 1, 3, 0,22, 0.00,60.00,Tuesday
198,208061441.6775136
1030,941093873.7368753
2,3, 1, 3, 0,23, 0.00,60.00,Tuesday
198,104030720.8387568
1030,941093873.7368753
2,3, 1, 3, 0,24, 0.00,60.00,Tuesday
198,52015360.4193784
1030,941093873.7368753
2,4, 1, 4, 0, 1, 0.00,60.00,Wednesday
198,41707937.25831755
1030,836730825.2177296
2,4, 1, 4, 0, 2, 0.00,60.00,Wednesday
198,36464788.34797145
1030,836730825.2177296
2,4, 1, 4, 0, 3, 0.00,60.00,Wednesday
198,36464788.34797145
1030,836730825.2177296
2,4, 1, 4, 0, 4, 0.00,60.00,Wednesday
198,36464788.34797145
1030,836730825.2177296
2,4, 1, 4, 0, 5, 0.00,60.00,Wednesday
198,36464788.34797145
1030,836730825.2177296
2,4, 1, 4, 0, 6, 0.00,60.00,Wednesday
198,37975250.63110626
1030,836730825.2177296
2,4, 1, 4, 0, 7, 0.00,60.00,Wednesday
198,87445560.3280437
1030,941093873.7368753
2,4, 1, 4, 0, 8, 0.00,60.00,Wednesday
198,308159866.76339775
1030,941093873.7368753
2,4, 1, 4, 0, 9, 0.00,60.00,Wednesday
198,830476763.5097176
1030,1524590982.1435688
2,4, 1, 4, 0,10, 0.00,60.00,Wednesday
198,805214287.1996835
1030,1524590982.1435688
2,4, 1, 4, 0,11, 0.00,60.00,Wednesday
198,805214287.1996835
1030,1524590982.1435688
2,4, 1, 4, 0,12, 0.00,60.00,Wednesday
198,805214287.1996835
1030,1524590982.1435688
2,4, 1, 4, 0,13, 0.00,60.00,Wednesday
198,805214287.1996835
1030,1407891560.4622304
2,4, 1, 4, 0,14, 0.00,60.00,Wednesday
198,805214287.1996835
1030,1524590982.1435688
2,4, 1, 4, 0,15, 0.00,60.00,Wednesday
198,805214287.1996835
1030,1524590982.1435688
2,4, 1, 4, 0,16, 0.00,60.00,Wednesday
198,805214287.1996835
1030,1524590982.1435688
2,4, 1, 4, 0,17, 0.00,60.00,Wednesday
198,819430350.4336435
1030,1524590982.1435688
2,4, 1, 4, 0,18, 0.00,60.00,Wednesday
198,514802757.94574124
1030,1057793295.4182141
2,4, 1, 4, 0,19, 0.00,60.00,Wednesday
198,312092162.51627046
1030,941093873.7368753
2,4, 1, 4, 0,20, 0.00,60.00,Wednesday
198,312092162.51627046
1030,941093873.7368753
2,4, 1, 4, 0,21, 0.00,60.00,Wednesday
198,208061441.6775136
1030,941093873.7368753
2,4, 1, 4, 0,22, 0.00,60.00,Wednesday
198,208061441.6775136
1030,941093873.7368753
2,4, 1, 4, 0,23, 0.00,60.00,Wednesday
198,104030720.8387568
1030,941093873.7368753
2,4, 1, 4, 0,24, 0.00,60.00,Wednesday
198,52015360.4193784
1030,941093873.7368753
2,5, 1, 5, 0, 1, 0.00,60.00,Thursday
198,41707937.25831755
1030,836730825.2177296
2,5, 1, 5, 0, 2, 0.00,60.00,Thursday
198,36464788.34797145
1030,836730825.2177296
2,5, 1, 5, 0, 3, 0.00,60.00,Thursday
198,36464788.34797145
1030,836730825.2177296
2,5, 1, 5, 0, 4, 0.00,60.00,Thursday
198,36464788.34797145
1030,836730825.2177296
2,5, 1, 5, 0, 5, 0.00,60.00,Thursday
198,36464788.34797145
1030,836730825.2177296
2,5, 1, 5, 0, 6, 0.00,60.00,Thursday
198,37975250.63110626
1030,836730825.2177296
2,5, 1, 5, 0, 7, 0.00,60.00,Thursday
198,87445560.3280437
1030,941093873.7368753
2,5, 1, 5, 0, 8, 0.00,60.00,Thursday
198,311185797.285263
1030,941093873.7368753
2,5, 1, 5, 0, 9, 0.00,60.00,Thursday
198,900200667.3896937
1030,1524590982.1435688
2,5, 1, 5, 0,10, 0.00,60.00,Thursday
198,825866309.0486461
1030,1524590982.1435688
2,5, 1, 5, 0,11, 0.00,60.00,Thursday
198,809316362.3251306
1030,1524590982.1435688
2,5, 1, 5, 0,12, 0.00,60.00,Thursday
198,805261832.4422266
1030,1524590982.1435688
2,5, 1, 5, 0,13, 0.00,60.00,Thursday
198,805214287.1996835
1030,1407891560.4622304
2,5, 1, 5, 0,14, 0.00,60.00,Thursday
198,805263636.5267781
1030,1524590982.1435688
2,5, 1, 5, 0,15, 0.00,60.00,Thursday
198,809363574.5134621
1030,1524590982.1435688
2,5, 1, 5, 0,16, 0.00,60.00,Thursday
198,825512050.0702555
1030,1524590982.1435688
2,5, 1, 5, 0,17, 0.00,60.00,Thursday
198,896167297.4681053
1030,1524590982.1435688
2,5, 1, 5, 0,18, 0.00,60.00,Thursday
198,518898480.193222
1030,1057793295.4182141
2,5, 1, 5, 0,19, 0.00,60.00,Thursday
198,312092162.51627046
1030,941093873.7368753
2,5, 1, 5, 0,20, 0.00,60.00,Thursday
198,312092162.51627046
1030,941093873.7368753
2,5, 1, 5, 0,21, 0.00,60.00,Thursday
198,208061441.6775136
1030,941093873.7368753
2,5, 1, 5, 0,22, 0.00,60.00,Thursday
198,208061441.6775136
1030,941093873.7368753
2,5, 1, 5, 0,23, 0.00,60.00,Thursday
198,104030720.8387568
1030,941093873.7368753
2,5, 1, 5, 0,24, 0.00,60.00,Thursday
198,52015360.4193784
1030,941093873.7368753
2,6, 1, 6, 0, 1, 0.00,60.00,Friday
198,41707937.25831755
1030,836730825.2177296
2,6, 1, 6, 0, 2, 0.00,60.00,Friday
198,36464788.34797145
1030,836730825.2177296
2,6, 1, 6, 0, 3, 0.00,60.00,Friday
198,36464788.34797145
1030,836730825.2177296
2,6, 1, 6, 0, 4, 0.00,60.00,Friday
198,36464788.34797145
1030,836730825.2177296
2,6, 1, 6, 0, 5, 0.00,60.00,Friday
198,36464788.34797145
1030,836730825.2177296
2,6, 1, 6, 0, 6, 0.00,60.00,Friday
198,37975250.63110626
1030,836730825.2177296
2,6, 1, 6, 0, 7, 0.00,60.00,Friday
198,87445560.3280437
1030,941093873.7368753
2,6, 1, 6, 0, 8, 0.00,60.00,Friday
198,311186692.863608
1030,941093873.7368753
2,6, 1, 6, 0, 9, 0.00,60.00,Friday
198,892353686.3128601
1030,1524590982.1435688
2,6, 1, 6, 0,10, 0.00,60.00,Friday
198,813886668.1115907
1030,1524590982.1435688
2,6, 1, 6, 0,11, 0.00,60.00,Friday
198,805214287.1996835
1030,1524590982.1435688
2,6, 1, 6, 0,12, 0.00,60.00,Friday
198,805214287.1996835
1030,1524590982.1435688
2,6, 1, 6, 0,13, 0.00,60.00,Friday
198,805214287.1996835
1030,1407891560.4622304
2,6, 1, 6, 0,14, 0.00,60.00,Friday
198,805214287.1996835
1030,1524590982.1435688
2,6, 1, 6, 0,15, 0.00,60.00,Friday
198,805214287.1996835
1030,1524590982.1435688
2,6, 1, 6, 0,16, 0.00,60.00,Friday
198,805214287.1996835
1030,1524590982.1435688
2,6, 1, 6, 0,17, 0.00,60.00,Friday
198,817793723.7874274
1030,1524590982.1435688
2,6, 1, 6, 0,18, 0.00,60.00,Friday
198,514330752.96736795
1030,1057793295.4182141
2,6, 1, 6, 0,19, 0.00,60.00,Friday
198,312092162.51627046
1030,941093873.7368753
2,6, 1, 6, 0,20, 0.00,60.00,Friday
198,312092162.51627046
1030,941093873.7368753
2,6, 1, 6, 0,21, 0.00,60.00,Friday
198,208061441.6775136
1030,941093873.7368753
2,6, 1, 6, 0,22, 0.00,60.00,Friday
198,208061441.6775136
1030,941093873.7368753
2,6, 1, 6, 0,23, 0.00,60.00,Friday
198,104030720.8387568
1030,941093873.7368753
2,6, 1, 6, 0,24, 0.00,60.00,Friday
198,52015360.4193784
1030,941093873.7368753
2,7, 1, 7, 0, 1, 0.00,60.00,Saturday
198,41707937.25831755
1030,746122165.6661774
2,7, 1, 7, 0, 2, 0.00,60.00,Saturday
198,36464788.34797145
1030,746122165.6661774
2,7, 1, 7, 0, 3, 0.00,60.00,Saturday
198,36464788.34797145
1030,746122165.6661774
2,7, 1, 7, 0, 4, 0.00,60.00,Saturday
198,36464788.34797145
1030,746122165.6661774
2,7, 1, 7, 0, 5, 0.00,60.00,Saturday
198,36464788.34797145
1030,746122165.6661774
2,7, 1, 7, 0, 6, 0.00,60.00,Saturday
198,36464788.34797145
1030,746122165.6661774
2,7, 1, 7, 0, 7, 0.00,60.00,Saturday
198,87445560.3280437
1030,941093873.7368753
2,7, 1, 7, 0, 8, 0.00,60.00,Saturday
198,103729057.15343446
1030,941093873.7368753
2,7, 1, 7, 0, 9, 0.00,60.00,Saturday
198,300231555.7791732
1030,1057793295.4182141
2,7, 1, 7, 0,10, 0.00,60.00,Saturday
198,276000218.7045767
1030,1057793295.4182141
2,7, 1, 7, 0,11, 0.00,60.00,Saturday
198,269772100.21739817
1030,1057793295.4182141
2,7, 1, 7, 0,12, 0.00,60.00,Saturday
198,268420256.0061837
1030,1057793295.4182141
2,7, 1, 7, 0,13, 0.00,60.00,Saturday
198,134202381.19994731
1030,882744162.8962057
2,7, 1, 7, 0,14, 0.00,60.00,Saturday
198,134210210.24031429
1030,882744162.8962057
2,7, 1, 7, 0,15, 0.00,60.00,Saturday
198,134853880.40416512
1030,882744162.8962057
2,7, 1, 7, 0,16, 0.00,60.00,Saturday
198,137485191.26936257
1030,882744162.8962057
2,7, 1, 7, 0,17, 0.00,60.00,Saturday
198,149055641.07996517
1030,882744162.8962057
2,7, 1, 7, 0,18, 0.00,60.00,Saturday
198,51884178.76454934
1030,824394452.0555364
2,7, 1, 7, 0,19, 0.00,60.00,Saturday
198,52015360.4193784
1030,824394452.0555364
2,7, 1, 7, 0,20, 0.00,60.00,Saturday
198,41707937.25831755
1030,746122165.6661774
2,7, 1, 7, 0,21, 0.00,60.00,Saturday
198,36464788.34797145
1030,746122165.6661774
2,7, 1, 7, 0,22, 0.00,60.00,Saturday
198,36464788.34797145
1030,746122165.6661774
2,7, 1, 7, 0,23, 0.00,60.00,Saturday
198,36464788.34797145
1030,746122165.6661774
2,7, 1, 7, 0,24, 0.00,60.00,Saturday
198,36464788.34797145
1030,746122165.6661774
2,8, 1, 8, 0, 1, 0.00,60.00,Sunday
198,36464788.34797145
1030,746122165.6661774
2,8, 1, 8, 0, 2, 0.00,60.00,Sunday
198,36464788.34797145
1030,746122165.6661774
2,8, 1, 8, 0, 3, 0.00,60.00,Sunday
198,36464788.34797145
1030,746122165.6661774
2,8, 1, 8, 0, 4, 0.00,60.00,Sunday
198,36464788.34797145
1030,746122165.6661774
2,8, 1, 8, 0, 5, 0.00,60.00,Sunday
198,36464788.34797145
1030,746122165.6661774
2,8, 1, 8, 0, 6, 0.00,60.00,Sunday
198,36464788.34797145
1030,746122165.6661774
2,8, 1, 8, 0, 7, 0.00,60.00,Sunday
198,48092070.92212643
1030,824394452.0555364
2,8, 1, 8, 0, 8, 0.00,60.00,Sunday
198,51424470.99670685
1030,824394452.0555364
2,8, 1, 8, 0, 9, 0.00,60.00,Sunday
198,46400079.871479794
1030,824394452.0555364
2,8, 1, 8, 0,10, 0.00,60.00,Sunday
198,44734127.06664909
1030,824394452.0555364
2,8, 1, 8, 0,11, 0.00,60.00,Sunday
198,44734127.06664909
1030,824394452.0555364
2,8, 1, 8, 0,12, 0.00,60.00,Sunday
198,44734127.06664909
1030,824394452.0555364
2,8, 1, 8, 0,13, 0.00,60.00,Sunday
198,44734127.06664909
1030,824394452.0555364
2,8, 1, 8, 0,14, 0.00,60.00,Sunday
198,44734127.06664909
1030,824394452.0555364
2,8, 1, 8, 0,15, 0.00,60.00,Sunday
198,44734127.06664909
1030,824394452.0555364
2,8, 1, 8, 0,16, 0.00,60.00,Sunday
198,44734127.06664909
1030,824394452.0555364
2,8, 1, 8, 0,17, 0.00,60.00,Sunday
198,45315198.328584656
1030,824394452.0555364
2,8, 1, 8, 0,18, 0.00,60.00,Sunday
198,51364997.18458122
1030,824394452.0555364
2,8, 1, 8, 0,19, 0.00,60.00,Sunday
198,41707937.25831755
1030,746122165.6661774
2,8, 1, 8, 0,20, 0.00,60.00,Sunday
198,36464788.34797145
1030,746122165.6661774
2,8, 1, 8, 0,21, 0.00,60.00,Sunday
198,36464788.34797145
1030,746122165.6661774
2,8, 1, 8, 0,22, 0.00,60.00,Sunday
198,36464788.34797145
1030,746122165.6661774
2,8, 1, 8, 0,23, 0.00,60.00,Sunday
198,36464788.34797145
1030,746122165.6661774
2,8, 1, 8, 0,24, 0.00,60.00,Sunday
198,36464788.34797145
1030,746122165.6661774
2,9, 1, 9, 0, 1, 0.00,60.00,Monday
198,36464788.34797145
1030,836730825.2177296
2,9, 1, 9, 0, 2, 0.00,60.00,Monday
198,36464788.34797145
1030,836730825.2177296
2,9, 1, 9, 0, 3, 0.00,60.00,Monday
198,36464788.34797145
1030,836730825.2177296
2,9, 1, 9, 0, 4, 0.00,60.00,Monday
198,36464788.34797145
1030,836730825.2177296
2,9, 1, 9, 0, 5, 0.00,60.00,Monday
198,36464788.34797145
1030,836730825.2177296
2,9, 1, 9, 0, 6, 0.00,60.00,Monday
198,37975250.63110626
1030,836730825.2177296
2,9, 1, 9, 0, 7, 0.00,60.00,Monday
198,87445560.3280437
1030,941093873.7368753
2,9, 1, 9, 0, 8, 0.00,60.00,Monday
198,308046252.9591747
1030,941093873.7368753
2,9, 1, 9, 0, 9, 0.00,60.00,Monday
198,829512342.1486449
1030,1524590982.1435688
2,9, 1, 9, 0,10, 0.00,60.00,Monday
198,805214287.1996835
1030,1524590982.1435688
2,9, 1, 9, 0,11, 0.00,60.00,Monday
198,805214287.1996835
1030,1524590982.1435688
2,9, 1, 9, 0,12, 0.00,60.00,Monday
198,805214287.1996835
1030,1524590982.1435688
2,9, 1, 9, 0,13, 0.00,60.00,Monday
198,805214287.1996835
1030,1407891560.4622304
2,9, 1, 9, 0,14, 0.00,60.00,Monday
198,805214287.1996835
1030,1524590982.1435688
2,9, 1, 9, 0,15, 0.00,60.00,Monday
198,805214287.1996835
1030,1524590982.1435688
2,9, 1, 9, 0,16, 0.00,60.00,Monday
198,805214287.1996835
1030,1524590982.1435688
2,9, 1, 9, 0,17, 0.00,60.00,Monday
198,815372805.2355046
1030,1524590982.1435688
2,9, 1, 9, 0,18, 0.00,60.00,Monday
198,513526745.14834386
1030,1057793295.4182141
2,9, 1, 9, 0,19, 0.00,60.00,Monday
198,312092162.51627046
1030,941093873.7368753
2,9, 1, 9, 0,20, 0.00,60.00,Monday
198,312092162.51627046
1030,941093873.7368753
2,9, 1, 9, 0,21, 0.00,60.00,Monday
198,208061441.6775136
1030,941093873.7368753
2,9, 1, 9, 0,22, 0.00,60.00,Monday
198,208061441.6775136
1030,941093873.7368753
2,9, 1, 9, 0,23, 0.00,60.00,Monday
198,104030720.8387568
1030,941093873.7368753
2,9, 1, 9, 0,24, 0.00,60.00,Monday
198,52015360.4193784
1030,941093873.7368753
2,10, 1,10, 0, 1, 0.00,60.00,Tuesday
198,41707937.25831755
1030,836730825.2177296
2,10, 1,10, 0, 2, 0.00,60.00,Tuesday
198,36464788.34797145
1030,836730825.2177296
2,10, 1,10, 0, 3, 0.00,60.00,Tuesday
198,36464788.34797145
1030,836730825.2177296
2,10, 1,10, 0, 4, 0.00,60.00,Tuesday
198,36464788.34797145
1030,836730825.2177296
2,10, 1,10, 0, 5, 0.00,60.00,Tuesday
198,36464788.34797145
1030,836730825.2177296
2,10, 1,10, 0, 6, 0.00,60.00,Tuesday
198,37975250.63110626
1030,836730825.2177296
2,10, 1,10, 0, 7, 0.00,60.00,Tuesday
198,87445560.3280437
1030,941093873.7368753
2,10, 1,10, 0, 8, 0.00,60.00,Tuesday
198,308053140.23232424
1030,941093873.7368753
2,10, 1,10, 0, 9, 0.00,60.00,Tuesday
198,829219567.5827501
1030,1524590982.1435688
2,10, 1,10, 0,10, 0.00,60.00,Tuesday
198,805214287.1996835
1030,1524590982.1435688
2,10, 1,10, 0,11, 0.00,60.00,Tuesday
198,805214287.1996835
1030,1524590982.1435688
2,10, 1,10, 0,12, 0.00,60.00,Tuesday
198,805214287.1996835
1030,1524590982.1435688
2,10, 1,10, 0,13, 0.00,60.00,Tuesday
198,805214287.1996835
1030,1407891560.4622304
2,10, 1,10, 0,14, 0.00,60.00,Tuesday
198,805214287.1996835
1030,1524590982.1435688
2,10, 1,10, 0,15, 0.00,60.00,Tuesday
198,805214287.1996835
1030,1524590982.1435688
2,10, 1,10, 0,16, 0.00,60.00,Tuesday
198,805214287.1996835
1030,1524590982.1435688
2,10, 1,10, 0,17, 0.00,60.00,Tuesday
198,814766927.7739211
1030,1524590982.1435688
2,10, 1,10, 0,18, 0.00,60.00,Tuesday
198,513117500.7549556
1030,1057793295.4182141
2,10, 1,10, 0,19, 0.00,60.00,Tuesday
198,312092162.51627046
1030,941093873.7368753
2,10, 1,10, 0,20, 0.00,60.00,Tuesday
198,312092162.51627046
1030,941093873.7368753
2,10, 1,10, 0,21, 0.00,60.00,Tuesday
198,208061441.6775136
1030,941093873.7368753
2,10, 1,10, 0,22, 0.00,60.00,Tuesday
198,208061441.6775136
1030,941093873.7368753
2,10, 1,10, 0,23, 0.00,60.00,Tuesday
198,104030720.8387568
1030,941093873.7368753
2,10, 1,10, 0,24, 0.00,60.00,Tuesday
198,52015360.4193784
1030,941093873.7368753
2,11, 1,11, 0, 1, 0.00,60.00,Wednesday
198,41707937.25831755
1030,836730825.2177296
2,11, 1,11, 0, 2, 0.00,60.00,Wednesday
198,36464788.34797145
1030,836730825.2177296
2,11, 1,11, 0, 3, 0.00,60.00,Wednesday
198,36464788.34797145
1030,836730825.2177296
2,11, 1,11, 0, 4, 0.00,60.00,Wednesday
198,36464788.34797145
1030,836730825.2177296
2,11, 1,11, 0, 5, 0.00,60.00,Wednesday
198,36464788.34797145
1030,836730825.2177296
2,11, 1,11, 0, 6, 0.00,60.00,Wednesday
198,37975250.63110626
1030,836730825.2177296
2,11, 1,11, 0, 7, 0.00,60.00,Wednesday
198,87445560.3280437
1030,941093873.7368753
2,11, 1,11, 0, 8, 0.00,60.00,Wednesday
198,308050330.16707075
1030,941093873.7368753
2,11, 1,11, 0, 9, 0.00,60.00,Wednesday
198,829505446.4941975
1030,1524590982.1435688
2,11, 1,11, 0,10, 0.00,60.00,Wednesday
198,805214287.1996835
1030,1524590982.1435688
2,11, 1,11, 0,11, 0.00,60.00,Wednesday
198,805214287.1996835
1030,1524590982.1435688
2,11, 1,11, 0,12, 0.00,60.00,Wednesday
198,805214287.1996835
1030,1524590982.1435688
2,11, 1,11, 0,13, 0.00,60.00,Wednesday
198,805214287.1996835
1030,1407891560.4622304
2,11, 1,11, 0,14, 0.00,60.00,Wednesday
198,805214287.1996835
1030,1524590982.1435688
2,11, 1,11, 0,15, 0.00,60.00,Wednesday
198,805214287.1996835
1030,1524590982.1435688
2,11, 1,11, 0,16, 0.00,60.00,Wednesday
198,805214287.1996835
1030,1524590982.1435688
2,11, 1,11, 0,17, 0.00,60.00,Wednesday
198,819154131.1096431
1030,1524590982.1435688
2,11, 1,11, 0,18, 0.00,60.00,Wednesday
198,514354011.00458705
1030,1057793295.4182141
2,11, 1,11, 0,19, 0.00,60.00,Wednesday
198,312092162.51627046
1030,941093873.7368753
2,11, 1,11, 0,20, 0.00,60.00,Wednesday
198,312092162.51627046
1030,941093873.7368753
2,11, 1,11, 0,21, 0.00,60.00,Wednesday
198,208061441.6775136
1030,941093873.7368753
2,11, 1,11, 0,22, 0.00,60.00,Wednesday
198,208061441.6775136
1030,941093873.7368753
2,11, 1,11, 0,23, 0.00,60.00,Wednesday
198,104030720.8387568
1030,941093873.7368753
2,11, 1,11, 0,24, 0.00,60.00,Wednesday
198,52015360.4193784
1030,941093873.7368753
2,12, 1,12, 0, 1, 0.00,60.00,Thursday
198,41707937.25831755
1030,836730825.2177296
2,12, 1,12, 0, 2, 0.00,60.00,Thursday
198,36464788.34797145
1030,836730825.2177296
2,12, 1,12, 0, 3, 0.00,60.00,Thursday
198,36464788.34797145
1030,836730825.2177296
2,12, 1,12, 0, 4, 0.00,60.00,Thursday
198,36464788.34797145
1030,836730825.2177296
2,12, 1,12, 0, 5, 0.00,60.00,Thursday
198,36464788.34797145
1030,836730825.2177296
2,12, 1,12, 0, 6, 0.00,60.00,Thursday
198,37975250.63110626
1030,836730825.2177296
2,12, 1,12, 0, 7, 0.00,60.00,Thursday
198,87445560.3280437
1030,941093873.7368753
2,12, 1,12, 0, 8, 0.00,60.00,Thursday
198,307939898.5773625
1030,941093873.7368753
2,12, 1,12, 0, 9, 0.00,60.00,Thursday
198,827027208.2663568
1030,1524590982.1435688
2,12, 1,12, 0,10, 0.00,60.00,Thursday
198,805214287.1996835
1030,1524590982.1435688
2,12, 1,12, 0,11, 0.00,60.00,Thursday
198,805214287.1996835
1030,1524590982.1435688
2,12, 1,12, 0,12, 0.00,60.00,Thursday
198,805214287.1996835
1030,1524590982.1435688
2,12, 1,12, 0,13, 0.00,60.00,Thursday
198,805214287.1996835
1030,1407891560.4622304
2,12, 1,12, 0,14, 0.00,60.00,Thursday
198,805214287.1996835
1030,1524590982.1435688
2,12, 1,12, 0,15, 0.00,60.00,Thursday
198,805214287.1996835
1030,1524590982.1435688
2,12, 1,12, 0,16, 0.00,60.00,Thursday
198,805214287.1996835
1030,1524590982.1435688
2,12, 1,12, 0,17, 0.00,60.00,Thursday
198,814154972.7023224
1030,1524590982.1435688
2,12, 1,12, 0,18, 0.00,60.00,Thursday
198,511116998.002614
1030,1057793295.4182141
2,12, 1,12, 0,19, 0.00,60.00,Thursday
198,312092162.51627046
1030,941093873.7368753
2,12, 1,12, 0,20, 0.00,60.00,Thursday
198,312092162.51627046
1030,941093873.7368753
2,12, 1,12, 0,21, 0.00,60.00,Thursday
198,208061441.6775136
1030,941093873.7368753
2,12, 1,12, 0,22, 0.00,60.00,Thursday
198,208061441.6775136
1030,941093873.7368753
2,12, 1,12, 0,23, 0.00,60.00,Thursday
198,104030720.8387568
1030,941093873.7368753
2,12, 1,12, 0,24, 0.00,60.00,Thursday
198,52015360.4193784
1030,941093873.7368753
2,13, 1,13, 0, 1, 0.00,60.00,Friday
198,41707937.25831755
1030,836730825.2177296
2,13, 1,13, 0, 2, 0.00,60.00,Friday
198,36464788.34797145
1030,836730825.2177296
2,13, 1,13, 0, 3, 0.00,60.00,Friday
198,36464788.34797145
1030,836730825.2177296
2,13, 1,13, 0, 4, 0.00,60.00,Friday
198,36464788.34797145
1030,836730825.2177296
2,13, 1,13, 0, 5, 0.00,60.00,Friday
198,36464788.34797145
1030,836730825.2177296
2,13, 1,13, 0, 6, 0.00,60.00,Friday
198,37975250.63110626
1030,836730825.2177296
2,13, 1,13, 0, 7, 0.00,60.00,Friday
198,87445560.3280437
1030,941093873.7368753
2,13, 1,13, 0, 8, 0.00,60.00,Friday
198,310351362.94623864
1030,941093873.7368753
2,13, 1,13, 0, 9, 0.00,60.00,Friday
198,868397174.3435931
1030,1524590982.1435688
2,13, 1,13, 0,10, 0.00,60.00,Friday
198,808477389.9900416
1030,1524590982.1435688
2,13, 1,13, 0,11, 0.00,60.00,Friday
198,805214287.1996835
1030,1524590982.1435688
2,13, 1,13, 0,12, 0.00,60.00,Friday
198,805214287.1996835
1030,1524590982.1435688
2,13, 1,13, 0,13, 0.00,60.00,Friday
198,805214287.1996835
1030,1407891560.4622304
2,13, 1,13, 0,14, 0.00,60.00,Friday
198,805214287.1996835
1030,1524590982.1435688
2,13, 1,13, 0,15, 0.00,60.00,Friday
198,805214287.1996835
1030,1524590982.1435688
2,13, 1,13, 0,16, 0.00,60.00,Friday
198,808248202.0639254
1030,1524590982.1435688
2,13, 1,13, 0,17, 0.00,60.00,Friday
198,859553191.0068007
1030,1524590982.1435688
2,13, 1,13, 0,18, 0.00,60.00,Friday
198,517099813.0272914
1030,1057793295.4182141
2,13, 1,13, 0,19, 0.00,60.00,Friday
198,312092162.51627046
1030,941093873.7368753
2,13, 1,13, 0,20, 0.00,60.00,Friday
198,312092162.51627046
1030,941093873.7368753
2,13, 1,13, 0,21, 0.00,60.00,Friday
198,208061441.6775136
1030,941093873.7368753
2,13, 1,13, 0,22, 0.00,60.00,Friday
198,208061441.6775136
1030,941093873.7368753
2,13, 1,13, 0,23, 0.00,60.00,Friday
198,104030720.8387568
1030,941093873.7368753
2,13, 1,13, 0,24, 0.00,60.00,Friday
198,52015360.4193784
1030,941093873.7368753
2,14, 1,14, 0, 1, 0.00,60.00,Saturday
198,41707937.25831755
1030,746122165.6661774
2,14, 1,14, 0, 2, 0.00,60.00,Saturday
198,36464788.34797145
1030,746122165.6661774
2,14, 1,14, 0, 3, 0.00,60.00,Saturday
198,36464788.34797145
1030,746122165.6661774
2,14, 1,14, 0, 4, 0.00,60.00,Saturday
198,36464788.34797145
1030,746122165.6661774
2,14, 1,14, 0, 5, 0.00,60.00,Saturday
198,36464788.34797145
1030,746122165.6661774
2,14, 1,14, 0, 6, 0.00,60.00,Saturday
198,36464788.34797145
1030,746122165.6661774
2,14, 1,14, 0, 7, 0.00,60.00,Saturday
198,87445560.3280437
1030,941093873.7368753
2,14, 1,14, 0, 8, 0.00,60.00,Saturday
198,103698692.18060687
1030,941093873.7368753
2,14, 1,14, 0, 9, 0.00,60.00,Saturday
198,299233313.93750155
1030,1057793295.4182141
2,14, 1,14, 0,10, 0.00,60.00,Saturday
198,274753138.4030851
1030,1057793295.4182141
2,14, 1,14, 0,11, 0.00,60.00,Saturday
198,269499586.6327447
1030,1057793295.4182141
2,14, 1,14, 0,12, 0.00,60.00,Saturday
198,268404762.39989462
1030,1057793295.4182141
2,14, 1,14, 0,13, 0.00,60.00,Saturday
198,134202381.19994731
1030,882744162.8962057
2,14, 1,14, 0,14, 0.00,60.00,Saturday
198,134202381.19994731
1030,882744162.8962057
2,14, 1,14, 0,15, 0.00,60.00,Saturday
198,134543649.44053653
1030,882744162.8962057
2,14, 1,14, 0,16, 0.00,60.00,Saturday
198,136684748.0743897
1030,882744162.8962057
2,14, 1,14, 0,17, 0.00,60.00,Saturday
198,147410571.28243113
1030,882744162.8962057
2,14, 1,14, 0,18, 0.00,60.00,Saturday
198,51807534.79191016
1030,824394452.0555364
2,14, 1,14, 0,19, 0.00,60.00,Saturday
198,52015360.4193784
1030,824394452.0555364
2,14, 1,14, 0,20, 0.00,60.00,Saturday
198,41707937.25831755
1030,746122165.6661774
2,14, 1,14, 0,21, 0.00,60.00,Saturday
198,36464788.34797145
1030,746122165.6661774
2,14, 1,14, 0,22, 0.00,60.00,Saturday
198,36464788.34797145
1030,746122165.6661774
2,14, 1,14, 0,23, 0.00,60.00,Saturday
198,36464788.34797145
1030,746122165.6661774
2,14, 1,14, 0,24, 0.00,60.00,Saturday
198,36464788.34797145
1030,746122165.6661774
2,15, 1,15, 0, 1, 0.00,60.00,Sunday
198,36464788.34797145
1030,746122165.6661774
2,15, 1,15, 0, 2, 0.00,60.00,Sunday
198,36464788.34797145
1030,746122165.6661774
2,15, 1,15, 0, 3, 0.00,60.00,Sunday
198,36464788.34797145
1030,746122165.6661774
2,15, 1,15, 0, 4, 0.00,60.00,Sunday
198,36464788.34797145
1030,746122165.6661774
2,15, 1,15, 0, 5, 0.00,60.00,Sunday
198,36464788.34797145
1030,746122165.6661774
2,15, 1,15, 0, 6, 0.00,60.00,Sunday
198,36464788.34797145
1030,746122165.6661774
2,15, 1,15, 0, 7, 0.00,60.00,Sunday
198,48092070.92212643
1030,824394452.0555364
2,15, 1,15, 0, 8, 0.00,60.00,Sunday
198,51849267.17101226
1030,824394452.0555364
2,15, 1,15, 0, 9, 0.00,60.00,Sunday
198,49871669.55624082
1030,824394452.0555364
2,15, 1,15, 0,10, 0.00,60.00,Sunday
198,45788472.81773857
1030,824394452.0555364
2,15, 1,15, 0,11, 0.00,60.00,Sunday
198,44911565.00836551
1030,824394452.0555364
2,15, 1,15, 0,12, 0.00,60.00,Sunday
198,44734127.06664909
1030,824394452.0555364
2,15, 1,15, 0,13, 0.00,60.00,Sunday
198,44734127.06664909
1030,824394452.0555364
2,15, 1,15, 0,14, 0.00,60.00,Sunday
198,44734127.06664909
1030,824394452.0555364
2,15, 1,15, 0,15, 0.00,60.00,Sunday
198,44844321.8226914
1030,824394452.0555364
2,15, 1,15, 0,16, 0.00,60.00,Sunday
198,45536518.63437127
1030,824394452.0555364
2,15, 1,15, 0,17, 0.00,60.00,Sunday
198,49127755.52505419
1030,824394452.0555364
2,15, 1,15, 0,18, 0.00,60.00,Sunday
198,51807278.51439256
1030,824394452.0555364
2,15, 1,15, 0,19, 0.00,60.00,Sunday
198,41707937.25831755
1030,746122165.6661774
2,15, 1,15, 0,20, 0.00,60.00,Sunday
198,36464788.34797145
1030,746122165.6661774
2,15, 1,15, 0,21, 0.00,60.00,Sunday
198,36464788.34797145
1030,746122165.6661774